272
Lattice="15.5496228105 0.0 0.0 0.0 15.6645678838 0.0 0.0 0.0 18.7729871559" Properties=species:S:1:pos:R:3 i=0 time=0.0 E=-2207.9666695709 pbc="T T T"
Zn       3.14061034       2.18320372       7.64752100
Zn      12.40901508      13.48136356      11.12546470
Zn       4.63387016      13.48147301      17.03397582
Zn      10.91575176       2.18309432       1.73901269
Zn      12.40899668      10.01478994       1.73915068
Zn       3.14062304       5.64977886      17.03384133
Zn      10.91576188       5.64989169      11.12568162
Zn       4.63385828      10.01467575       7.64730859
Zn       7.93332776       5.26159832       5.90025446
Zn       7.61629629      10.40297126      12.87273374
Zn      15.39135605      10.40290896      15.28670297
Zn       0.15826682       5.26166045       3.48628285
Zn       7.61633899      13.09473456       3.48630160
Zn       7.93328288       2.56983686      15.28668708
Zn       0.15822528       2.56977694      12.87284191
Zn      15.39139678      13.09479007       5.90014933
N        6.91329288       3.69248017       6.64731085
N        8.63633258      11.97209219      12.12567899
N        0.86152290      11.97207258      16.03378128
N       14.68809787       3.69249668       2.73920585
N        8.63649454      11.52537882       2.73915766
N        6.91312590       4.13919446      16.03383313
N       14.68792779       4.13917446      12.12566671
N        0.86169207      11.52539379       6.64731870
N        5.09084820       2.52910651       7.31511395
N       10.45877757      13.13545990      11.45786646
N        2.68385490      13.13555375      16.70160788
N       12.86576742       2.52901549       2.07137612
N       10.45876592      10.36146822       2.07162150
N        5.09085412       5.30310402      16.70137084
N       12.86576389       5.30319313      11.45811760
N        2.68385450      10.36137550       7.31487103
N        1.59133956       2.10473626      11.54098393
N       13.95827976      13.55982943       7.23200176
N        6.18339900      13.55984466       2.15440533
N        9.36622456       2.10472615      16.61858052
N       13.95823806       9.93761448      16.61855640
N        1.59138198       5.72694828       2.15442969
N        9.36626769       5.72696506       7.23214797
N        6.18335918       9.93760462      11.54083846
N        2.71688144       1.94672348       9.58534398
N       12.83274500      13.71785550       9.18764228
N        5.05777734      13.71793134       0.19882478
N       10.49184108       1.94663651      18.57416419
N       12.83273782       9.77902492      18.57419062
N        2.71687891       5.88554047       0.19879555
N       10.49184477       5.88562773       9.18772737
N        5.05778060       9.77894610       9.58526055
N        1.17721232      14.60175364       5.81024571
N       14.37240644       1.06281476      12.96274157
N        6.59777224       1.06281992      15.19678817
N        8.95184735      14.60174980       3.57620311
N       14.37249881       6.76885980       3.57622447
N        1.17712244       8.89570577      15.19675872
N        8.95175830       8.89571066      12.96267324
N        6.59786851       6.76885920       5.81031709
N        2.51919879       0.59800901       6.56279539
N       13.03042019      15.06655540      12.21019518
N        5.25560973      15.06666397      15.94929341
N       10.29401286       0.59790187       2.82369542
N       13.03054367       8.42975340       2.82375245
N        2.51907585       7.23481114      15.94923405
N       10.29388402       7.23491537      12.21024143
N        5.25573671       8.42965050       6.56274782
N        0.98702734       4.88453597       5.26885533
N       14.56259371      10.78003482      13.50413163
N        6.78761314      10.78009710      14.65533166
N        8.76200334       4.88446988       4.11765669
N       14.56255243      12.71687988       4.11766397
N        0.98707511       2.94768778      14.65532325
N        8.76204748       2.94774471      13.50417317
N        6.78757081      12.71682276       5.26881000
N        2.11390020       3.73961109       6.86366376
N       13.43572521      11.92496039      11.90932071
N        5.66077094      11.92499623      16.25019052
N        9.88884780       3.73957119       2.52279692
N       13.43572233      11.57149974       2.52308668
N        2.11390316       4.09306827      16.24989990
N        9.88884854       4.09310447      11.90954078
N        5.66077010      11.57146547       6.86344423
C        5.56079423       3.67353492       6.75735373
C        9.98882824      11.99103455      12.01564027
C        2.21401821      11.99110819      16.14384499
C       13.33559648       3.67345642       2.62913877
C        9.98901825      11.50610081       2.62918179
C        5.56061215       4.15846360      16.14380940
C       13.33542016       4.15853527      12.01567909
C        2.21420680      11.50602756       6.75731162
C        6.21870148       1.76212062       7.58318127
C        9.33092109      13.90244186      11.18978852
C        1.55600141      13.90247167      16.96967446
C       13.99361533       1.76210139       1.80330873
C        9.33075390       9.59470658       1.80361092
C        6.21887616       6.06987168      16.96937619
C       13.99378725       6.06989273      11.19010294
C        1.55583809       9.59467879       7.58288432
C        7.34155795       2.47827255       7.17186174
C        8.20806716      13.18629076      11.60111586
C        0.43317293      13.18625420      16.55833482
C       15.11644931       2.47830995       2.21464828
C        8.20802153      10.31115145       2.21476366
C        7.34159805       5.35341419      16.55821835
C       15.11648248       5.35336671      11.60127746
C        0.43313574      10.31119494       7.17171234
C        1.61158175       2.41658763      10.22011130
C       13.93804070      13.24797817       8.55288064
C        6.16300808      13.24794738       0.83344373
C        9.38661117       2.41662236      17.93953949
C       13.93800101      10.24912554      17.93952465
C        1.61161225       5.41545222       0.83346143
C        9.38663863       5.41541835       8.55319367
C        6.16298668      10.24914918      10.21979217
C        3.45144027       1.28849257      10.56503295
C       12.09819234      14.37608693       8.20795562
C        4.32337280      14.37624503       1.17843517
C       11.22624720       1.28832120      17.59455274
C       12.09819565       9.12104351      17.59433861
C        3.45143469       6.54350758       1.17865209
C       11.22625095       6.54368202       8.20793888
C        4.32337147       9.12089672      10.56504688
C        2.75777268       1.38623503      11.76873630
C       12.79184818      14.27834068       7.00425107
C        5.01698785      14.27853739       2.38215816
C       10.53263159       1.38603366      16.39082938
C       12.79183381       9.21910427      16.39064837
C        2.75779630       6.44544145       2.38234241
C       10.53264963       6.44564114       7.00423475
C        5.01697211       9.21893354      11.76875328
C        1.46602847      15.45030046       6.83061030
C       14.08359185       0.21427191      11.94238178
C        6.30877498       0.21419361      16.21718802
C        9.24084284      15.45038801       2.55580205
C       14.08359356       7.61734469       2.55583563
C        1.46601312       8.04722013      16.21714122
C        9.24082832       8.04714667      11.94225713
C        6.30879157       7.61742760       6.83073404
C        2.93338470       0.24982168       5.28238174
C       12.61623565      15.41474704      13.49061460
C        4.84151507      15.41484684      14.66895785
C       10.70811899       0.24970971       4.10401619
C       12.61654322       8.08176468       4.10427195
C        2.93308732       7.58281452      14.66871317
C       10.70780872       7.58291391      13.49068429
C        4.84181487       8.08165296       5.28230919
C        2.10917814      14.88961956       4.81939579
C       13.44044715       0.77495178      13.95359070
C        5.66573082       0.77498278      14.20584585
C        9.88390722      14.88957581       4.56714161
C       13.44073639       7.05696408       4.56721506
C        2.10889132       8.60761639      14.20578095
C        9.88360619       8.60765198      13.95374246
C        5.66601756       7.05691690       4.81924414
C        1.54322825       3.70130857       5.63224274
C       14.00639276      11.96325472      13.14074795
C        6.23135405      11.96335485      15.01883850
C        9.31825597       3.70120574       3.75413820
C       14.00645729      11.53350729       3.75449669
C        1.54316902       4.13105322      15.01847906
C        9.31818216       4.13115565      13.14088021
C        6.23142424      11.53340861       5.63210791
C        1.21767132       5.74291491       6.33808750
C       14.33196305       9.92165944      12.43489951
C        6.55699221       9.92167544      15.72464663
C        8.99264760       5.74290144       3.04834737
C       14.33174941      13.57502622       3.04827166
C        1.21786528       2.08954762      15.72470963
C        8.99285519       2.08955150      12.43471347
C        6.55677101      13.57501799       6.33828112
C        1.91117026       5.03769203       7.32032234
C       13.63846313      10.62687621      11.45265827
C        5.86351370      10.62700138      16.70684004
C        9.68612736       5.03756894       2.06615874
C       13.63828745      12.86953266       2.06620353
C        1.91132569       2.79502831      16.70678712
C        9.68629506       2.79514612      11.45268110
C        5.86333181      12.86941284       7.32030546
H        4.91463107       4.50028420       6.43343453
H       10.63499412      11.16429132      12.33956808
H        2.86018943      11.16439259      15.81993522
H       12.68943062       4.50017573       2.95305223
H       10.63532098      12.33276509       2.95303708
H        4.91430369       3.33180142      15.81996167
H       12.68910059       3.33190959      12.33952128
H        2.86052274      12.33265636       6.43346740
H        6.14723416       0.76931035       8.04394350
H        9.40239002      14.89524438      10.72901441
H        1.62741020      14.89528205      17.43044868
H       13.92221190       0.76929084       1.34253203
H        9.40204486       8.60183786       1.34295357
H        6.14757258       7.06273937      17.43003020
H       13.92254272       7.06276321      10.72943809
H        1.62707299       8.60180677       8.04355087
H        8.40418706       2.21013504       7.21760090
H        7.14543802      13.45442892      11.55537173
H       14.92015368      13.45432422      16.60407105
H        0.62946950       2.21024546       2.16891403
H        7.14535227      10.04318075       2.16898756
H        8.40426518       5.62139773      16.60399480
H        0.62954314       5.62128011      11.55549461
H       14.92007336      10.04328986       7.21748971
H        0.82661733       2.99944916       9.72046309
H       14.72300486      12.66511310       9.05252251
H        6.94796904      12.66500358       0.33389377
H        8.60165421       2.99956614      18.43909188
H       14.72294780      10.83190028      18.43929417
H        0.82665803       4.83269086       0.33368643
H        8.60169302       4.83257604       9.05288229
H        6.94793366      10.83198731       9.72010007
H        4.41223599       0.80933284      10.34255427
H       11.13740311      14.85525590       8.43043593
H        3.36262283      14.85553218       0.95601515
H       12.18699565       0.80903124      17.81697308
H       11.13745370       8.64173552      17.81672733
H        4.41218524       7.02280527       0.95626428
H       12.18695438       7.02310322       8.43027460
H        3.36266395       8.64147840      10.34271960
H        3.01319554       1.01314345      12.76729846
H       12.53642930      14.65142914       6.00568721
H        4.76173761      14.65166308       3.38070774
H       10.78788511       1.01290795      15.39227966
H       12.53642626       8.84618966      15.39201596
H        3.01321166       6.81834388       3.38097906
H       10.78790268       6.81858385       6.00561431
H        4.76172332       8.84599462      12.76737606
H        0.90310744      15.47543987       7.77292423
H       14.64650926       0.18913008      11.00006691
H        6.87173125       0.18910117      17.15948507
H        8.67787134      15.47548499       1.61351475
H       14.64639730       7.64240924       1.61344497
H        0.90320500       8.02213984      17.15952901
H        8.67798128       8.02211625      10.99989010
H        6.87164236       7.64245451       7.77309960
H        3.78487347       0.75022782       4.80516175
H       11.76474833      14.91433668      13.96783167
H        3.98999241      14.91454410      14.19165208
H       11.55965070       0.74999969       4.58132049
H       11.76516846       8.58228393       4.58159239
H        3.78446823       7.08230109      14.19140392
H       11.55922570       7.08250010      13.96807537
H        3.99039546       8.58206262       4.80491520
H        2.12432998      14.34531566       3.86700723
H       13.42528850       1.31925262      14.90598341
H        5.65065762       1.31932726      13.25348311
H        9.89898304      14.34522144       5.51949789
H       13.42568632       6.51276196       5.51966072
H        2.12395163       9.15182399      13.25333769
H        9.89859278       9.15189902      14.90616190
H        5.65103506       6.51266947       3.86682513
H        1.52794718       2.80057040       5.00478655
H       14.02166416      12.86399275      13.76820287
H        6.24668427      12.86404122      14.39131194
H        9.30290402       2.80051712       4.38166220
H       14.02187226      10.63288010       4.38209995
H        1.52776609       5.03168254      14.39087925
H        9.30269534       5.03174260      13.76854800
H        6.24690903      10.63282928       5.00442843
H        0.88103107       6.78664032       6.31958259
H       14.66860577       8.87793158      12.45339796
H        6.89369734       8.87799223      15.70609195
H        8.65595447       6.78658848       3.06691031
H       14.66828130      14.61879146       3.06658897
H        0.88133028       1.04578134      15.70640300
H        8.65628015       1.04582429      12.45308183
H        6.89335486      14.61874147       6.31990999
H        2.26991335       5.36439075       8.30404397
H       13.27972675      10.30018090      10.46893141
H        5.50485868      10.30022017      17.69058889
H       10.04479584       5.36435821       1.08241565
H       13.27947046      13.19605397       1.08245247
H        2.27013926       2.46851803      17.69054127
H       10.04504349       2.46854529      10.46891393
H        5.50459152      13.19601552       8.30407581
