ITEM: TIMESTEP
0
ITEM: NUMBER OF ATOMS
3000
ITEM: BOX BOUNDS pp pp pp
0.0000000000000000e+00 3.9332999999999998e+01
0.0000000000000000e+00 3.9332999999999998e+01
0.0000000000000000e+00 3.9332999999999998e+01
186 16 3.40045 5.93309 6.49744
321 16 4.12709 2.32282 5.27956
539 16 2.13066 5.69738 3.23743
1343 16 1.3196 2.86706 7.49327
512 16 6.19265 4.86844 3.64858
1226 16 7.61553 7.10264 6.21586
1956 14 7.14079 7.24003 8.29491
1570 16 5.46371 8.32491 8.50452
535 16 3.38925 2.46532 1.27109
2060 14 6.55716 5.49868 1.72926
943 16 5.38081 8.6178 3.3578
973 16 7.29082 3.1807 6.4867
1077 16 0.689274 1.50766 4.31872
138 16 8.19299 6.80315 1.80676
1883 14 1.98231 6.65109 5.09248
1195 16 4.39883 1.30303 8.42572
393 16 1.95343 8.84122 4.54049
1858 14 7.64638 3.36124 4.49067
937 16 2.09178 8.84208 8.48684
664 16 7.35079 1.70097 3.24922
1980 14 0.845791 1.10434 6.37933
56 16 4.87452 6.26709 0.801472
1614 14 4.48137 0.585095 6.38499
623 16 0.746535 5.91694 9.50087
1135 16 7.1782 3.74947 0.583445
2316 3 5.48399 6.66912 5.3336
1104 16 6.98481 5.47271 9.31869
2741 3 8.62414 7.35517 3.97308
2797 3 3.21659 7.46661 2.34518
2961 3 5.03908 4.11371 6.54485
2833 3 3.71276 4.1177 3.34991
2956 3 4.9228 1.47239 2.95407
669 16 9.59855 4.17349 4.08785
1327 16 8.83726 8.6765 9.1133
2665 3 3.64453 6.41793 9.43854
1896 14 0.367037 7.948 9.34671
2873 3 8.3159 2.98208 8.61374
2594 3 9.22871 2.87631 1.94808
1874 14 1.45521 4.0084 9.34258
2644 3 9.52191 4.96393 9.83003
2432 3 1.0065 9.35242 1.71194
2765 3 5.53858 3.44872 9.45096
2946 3 9.14949 1.24606 6.93294
35 16 0.396297 3.49633 0.726143
2655 3 0.64796 5.96871 0.774622
2571 3 6.78497 9.29712 5.64106
1686 14 3.8486 9.82519 8.5423
2468 3 0.309621 3.8317 3.16082
2395 3 5.59711 1.91368 0.379507
524 16 0.0967952 6.26606 5.85912
2675 3 11.0758 3.87208 6.22354
2493 3 15.9825 9.75769 0.0648665
112 16 19.1642 5.52095 3.92619
2695 3 17.2111 8.81196 6.63832
2286 3 10.2097 7.93962 5.8955
2585 3 10.3951 6.35837 2.37523
2678 3 11.371 3.26357 0.354005
2940 3 18.7872 3.25939 7.54444
2400 3 16.1788 4.15642 8.92937
1435 16 10.6313 3.16878 8.39885
1351 16 11.104 8.11477 3.49571
89 16 12.3801 5.30905 1.70673
711 16 14.0491 2.69791 8.75205
910 16 14.7717 2.40141 2.67104
769 16 16.7158 3.22004 6.4635
1110 16 11.56 5.98717 6.92001
1594 16 15.0992 5.6629 4.06752
1837 14 12.8852 6.64319 8.26964
170 16 14.8757 6.3221 7.79512
1108 16 12.5772 8.91332 8.6582
501 16 12.9024 2.29829 5.55468
980 16 14.3899 8.22063 2.14313
469 16 17.3492 8.63568 3.88171
2196 14 14.2496 6.01805 2.12379
1921 14 15.0991 1.62395 0.816385
126 16 18.283 9.10825 0.488
1329 16 11.4835 1.80347 2.24972
845 16 15.5999 5.63097 0.636347
2719 3 12.6471 7.96899 5.41247
2563 3 16.6237 3.72065 3.91621
2673 3 12.1202 4.37728 4.29702
2217 3 16.582 5.83068 5.8917
2024 14 12.6784 1.22007 3.73968
1151 16 18.7913 2.32207 2.89336
2799 3 14.4629 4.14426 6.38049
923 16 16.7023 9.59337 8.88762
2831 3 12.1441 8.65125 1.15981
2230 3 17.8097 7.10346 9.11345
246 16 19.2801 7.21538 6.98728
1784 14 18.7768 0.212659 3.05035
820 16 19.0501 5.0059 0.664832
2208 3 15.3536 0.912634 5.04973
1357 16 17.7426 0.938069 8.92605
2915 3 17.6333 6.65034 1.8618
1253 16 10.1118 9.70607 0.646661
2723 3 17.8844 0.765705 6.32506
2020 14 12.2277 1.97206 9.32021
2759 3 15.3955 0.206072 9.49227
2443 3 19.4623 8.99123 2.84994
1778 14 15.1391 9.31305 3.58649
2931 3 19.4838 9.2631 8.70281
1190 16 14.6339 9.4986 5.46336
2875 3 15.3205 1.6619 7.34387
1093 16 11.9906 0.0452183 9.02318
1857 14 19.5908 4.23517 2.46106
537 16 0.386332 15.6565 3.89485
2491 3 8.90594 19.1367 8.23443
1894 14 5.50037 19.1792 6.47828
529 16 1.10184 18.1306 0.123048
614 16 7.7086 19.1649 1.2332
1632 14 8.61407 10.8257 9.24393
140 16 3.58553 10.1588 1.06193
1160 16 3.63826 16.4276 9.54707
1295 16 6.78537 10.261 0.562553
2811 3 6.01435 17.5991 3.3477
23 16 1.90986 14.6495 0.667374
1739 14 5.31946 10.3095 2.29858
2755 3 2.645 14.4533 3.22685
2717 3 7.99764 16.2954 5.15757
2568 3 2.27272 12.2959 1.06923
38 16 8.47681 10.0663 4.11698
348 16 1.167 18.8449 4.75469
1792 14 2.12124 10.933 5.29575
219 16 3.80392 10.9073 6.50545
2128 14 3.17779 15.0874 8.04553
286 16 7.51655 13.8326 5.19312
376 16 2.88428 16.0134 5.98844
757 16 4.97728 13.9239 7.8134
842 16 6.58203 15.4476 2.4932
949 16 1.95208 12.1823 3.67631
1198 16 5.37981 12.235 3.03077
1233 16 7.3811 11.2779 7.50789
1416 16 1.6367 13.7386 8.14603
1529 16 8.6843 12.9518 1.92648
1772 14 7.00373 13.5486 3.01688
987 16 6.07847 17.2795 5.91857
1607 14 6.82367 13.5029 7.09857
1445 16 8.23351 14.1553 8.58493
1103 16 0.47177 17.5056 8.11068
1096 16 3.38845 16.9975 2.93956
1962 14 1.96603 16.9131 4.47476
1933 14 9.28406 17.9676 1.4579
475 16 9.56909 16.8463 2.99111
2996 3 4.27329 15.1951 1.35024
855 16 9.43136 17.395 6.72671
2710 3 6.43742 16.8926 8.08326
2701 3 4.97016 17.9613 1.38949
259 16 0.395347 11.1865 6.49895
2440 3 9.36471 12.1829 5.47782
790 16 3.60494 19.1563 7.51605
2795 3 2.51907 19.2785 2.13006
2184 14 1.55664 19.1663 8.38204
2691 3 0.0657298 13.1506 2.72176
145 16 10.8588 16.6625 9.66504
1890 14 19.2646 12.2223 5.41188
2261 3 10.8735 12.4941 0.865315
2810 3 12.5013 11.9809 5.54008
1993 14 17.7222 14.6559 9.59634
1829 14 19.0219 17.6709 1.01612
1886 14 13.6635 15.6929 0.502857
2252 3 13.6465 18.8679 6.92425
99 16 10.5408 11.5636 9.47084
1185 16 17.0962 12.33 5.56284
327 16 14.538 16.9151 1.90854
2067 14 12.7285 15.9276 9.6011
407 16 19.0269 17.8291 5.93652
796 16 17.3105 15.4635 7.62643
1141 16 15.8319 17.4406 5.05771
1893 14 17.0722 17.3218 6.77135
1054 16 17.4575 18.4217 2.19667
1769 14 12.0926 10.8814 8.04332
1393 16 11.5843 11.4728 3.06046
1084 16 10.9293 10.547 6.28072
1071 16 17.4456 14.491 2.9613
592 16 15.3559 11.5588 2.79219
1217 16 11.9696 14.7002 1.34132
1589 16 16.178 18.6352 8.25308
807 16 13.5082 15.8658 7.5427
2237 3 15.9063 10.8974 7.06752
234 16 11.1666 14.1031 5.83427
2431 3 17.1098 13.6573 0.798419
830 16 14.4363 14.3375 4.58942
1830 14 16.1329 13.2563 3.95009
195 16 11.2551 19.3841 1.29612
1728 14 12.8509 15.2874 5.63827
2027 14 10.5581 18.4132 5.38835
533 16 13.6761 12.3275 7.60779
2039 14 10.1545 10.0163 2.93455
1891 14 15.4822 18.1571 3.15535
932 16 12.3257 17.5037 4.9211
2389 3 15.1558 14.0034 8.09219
2285 3 13.7793 12.6625 1.42024
2703 3 10.5788 14.0614 3.23769
1216 16 19.6322 11.2794 3.58696
2614 3 19.3188 16.0187 3.89502
2268 3 0.728798 3.68769 14.8385
764 16 0.730845 5.25673 16.8535
1821 14 2.08041 6.93859 17.0214
367 16 8.20453 2.29919 11.128
1129 16 6.89739 2.74192 14.5407
962 16 2.83877 7.48682 14.9899
1936 14 4.96424 3.36297 14.218
771 16 3.46906 7.76964 11.4655
51 16 1.27987 5.39746 12.8613
564 16 6.71117 6.22056 16.6909
889 16 3.80204 2.3261 12.9933
916 16 3.80323 6.50382 18.1398
1140 16 8.48937 2.89736 17.5936
1197 16 3.99622 3.30307 16.2257
1372 16 5.09336 5.46916 13.4613
2187 14 3.30539 6.37974 13.0006
1584 16 1.02639 1.68596 17.0176
1702 14 5.89912 6.67803 18.4421
1348 16 7.13787 8.46619 13.8253
1551 16 1.08202 8.58712 17.655
2078 14 8.75308 2.26725 15.5907
14 16 9.04587 5.8696 12.1294
1826 14 9.08325 7.57211 13.4265
2598 3 6.12409 4.15775 17.3202
2333 3 2.66722 3.90064 18.2485
2621 3 3.45917 0.864812 17.7261
1470 16 0.179024 2.796 10.5458
2745 3 8.99835 7.65354 17.359
2763 3 8.99065 5.27882 16.9047
2390 3 4.12277 1.74221 10.7835
1665 14 0.224809 0.725293 11.4397
2469 3 5.32806 9.33768 12.1405
344 16 9.65314 6.34377 18.9416
2938 3 5.35984 7.83615 15.4243
605 16 0.421892 0.805319 13.687
2653 3 7.23258 4.33915 11.5538
402 16 9.05143 0.101469 15.3257
774 16 0.039793 8.9233 11.1034
620 16 6.60744 8.15503 19.6204
2013 14 1.39621 0.264496 15.5657
1972 14 7.98454 0.216562 10.8851
765 16 3.38959 4.1498 10.0885
435 16 17.8367 1.10424 19.5517
2287 3 9.89349 3.73683 12.3582
2889 3 10.6039 2.98626 18.3012
503 16 10.2118 6.76626 15.2004
2647 3 16.0108 1.90016 10.5281
992 16 10.3469 3.19756 14.8214
26 16 18.7671 2.97346 17.0474
2137 14 13.1087 1.17735 12.906
443 16 18.1669 5.7846 13.2623
1775 14 17.7187 4.32003 11.7719
2051 14 13.6178 2.58583 16.5944
671 16 15.2841 2.44376 17.8558
2046 14 12.2071 6.05054 15.5428
615 16 12.2059 1.24151 17.2642
199 16 12.0398 2.31024 11.5876
1578 16 15.4414 4.45535 11.4365
6 16 16.9322 8.33242 15.3934
579 16 14.0309 2.37455 14.5008
871 16 12.9323 5.61974 13.5524
953 16 12.6913 4.57426 16.9035
1409 16 16.2502 5.20106 15.9585
1644 14 13.9231 5.92619 11.7641
887 16 15.0968 7.67608 11.5663
1143 16 13.4312 7.72528 16.004
1114 16 17.9675 2.18892 12.2973
1639 14 17.9736 6.2746 15.1751
481 16 10.4784 9.00962 12.7575
2114 14 17.2975 2.827 18.4704
2193 14 15.0486 9.20928 15.8012
2609 3 13.3733 6.0935 18.6116
2539 3 16.8725 9.64859 18.3896
2320 3 16.3417 2.21183 14.3411
650 16 12.6254 5.97068 10.1984
2884 3 17.699 8.25776 12.8356
868 16 17.6302 0.280004 15.2988
2948 3 10.8871 7.86254 10.7988
1404 16 14.6961 0.198921 11.9719
2160 14 15.7667 9.77257 10.7368
32 16 11.9295 8.98998 19.4447
2088 14 19.4499 1.3959 15.6415
2778 3 19.5962 1.22436 10.8324
966 16 19.5242 8.15453 10.9976
1052 16 15.1889 7.07558 19.5554
813 16 18.5163 4.75011 9.88439
793 16 0.121951 17.4356 12.5256
2361 3 3.05268 10.023 14.9677
2589 3 1.37914 11.6955 16.4212
583 16 4.57572 9.92656 16.9431
1407 16 3.9747 11.2679 9.88539
2643 3 5.72584 18.7381 17.227
2838 3 0.686857 14.2033 18.4564
1588 16 7.34014 17.2498 10.0582
2321 3 9.72607 13.2588 15.073
2346 3 8.18966 19.4012 10.9614
2880 3 3.62664 13.7427 10.7075
2003 14 8.76142 15.66 9.9143
2766 3 2.81183 11.455 11.9547
2561 3 7.79924 19.0728 19.1593
2903 3 6.43415 10.6538 15.3799
2442 3 0.637989 13.2609 14.603
2998 3 5.72271 17.6012 12.1893
142 16 8.24472 10.1133 17.2169
2708 3 4.84838 16.7686 14.7606
1044 16 0.931705 16.6028 18.969
1422 16 0.245187 18.3336 16.158
2553 3 4.34484 14.2747 17.685
1996 14 1.69424 18.932 12.5133
1191 16 2.82663 12.4448 18.5236
1873 14 4.21492 10.764 18.811
2200 14 8.05652 11.5778 18.564
279 16 7.3836 11.2246 10.8647
2108 14 1.53081 16.8498 16.9734
1680 14 7.37028 15.1353 16.6102
984 16 7.25307 16.5905 18.3133
1254 16 1.7279 14.5111 12.0981
886 16 5.62991 14.1858 11.9404
1591 16 6.70807 18.554 15.0788
598 16 3.56052 17.4858 17.1249
780 16 1.5331 15.029 16.0528
925 16 8.41374 13.5394 17.5951
974 16 5.68994 14.4157 15.7741
1518 16 3.5238 17.8811 13.171
2157 14 6.38967 12.3169 12.7042
1396 16 4.63668 11.2744 13.4859
739 16 7.89826 12.1127 14.074
1347 16 0.700191 11.2359 13.4979
1437 16 9.23636 15.0284 11.9949
1208 16 9.06538 15.7681 15.247
2509 3 3.42745 13.5351 14.7239
2627 3 3.80253 15.7904 11.8649
1116 16 6.12103 11.7506 19.4804
2676 3 9.08043 18.8253 14.9305
2452 3 9.55111 10.9874 15.5438
747 16 9.42391 19.5359 17.3555
2543 3 9.51556 11.6173 11.8791
636 16 1.91672 19.4574 10.4783
2206 3 3.8189 19.2058 19.2839
2820 3 0.837582 19.0166 19.156
2740 3 15.962 13.6485 17.095
792 16 11.6285 11.4346 16.7423
856 16 18.6274 18.4789 18.153
2962 3 12.0665 9.84262 14.5223
1291 16 14.0907 10.9388 10.8407
2735 3 13.7141 18.1004 18.7228
1146 16 14.7932 10.3137 17.5944
2302 3 19.3476 11.5395 16.6842
2776 3 11.9239 18.8691 11.1423
2567 3 18.7402 11.7615 10.1948
2189 14 15.2259 19.1542 10.0961
1827 14 18.6354 16.5112 18.8553
152 16 13.6214 14.2544 16.5137
1715 14 12.8583 10.6726 18.7124
2111 14 17.3387 12.1428 13.5289
695 16 14.0966 17.3684 10.5061
976 16 17.4438 11.6528 15.5119
2877 3 13.3403 14.5488 19.2282
497 16 17.215 10.4228 12.2449
2685 3 16.5244 17.7661 16.3739
97 16 12.4012 17.5137 16.4897
1447 16 11.7212 12.4587 13.2104
263 16 15.1976 13.2424 13.218
151 16 10.9587 15.6798 19.1634
1371 16 18.2935 11.9995 19.1468
2525 3 18.6021 19.2883 11.7762
1653 14 13.3416 12.628 11.9326
2748 3 11.0766 14.0065 17.3708
2852 3 13.4288 12.1282 15.1639
2272 3 16.022 18.8506 13.5389
1308 16 17.1085 15.5007 18.024
832 16 13.1137 14.1747 10.5775
2554 3 17.3094 15.533 13.6988
578 16 17.6253 16.2956 10.9769
490 16 14.3124 10.1473 14.1704
323 16 9.90503 18.4138 12.8522
426 16 15.4436 16.6014 14.6727
2791 3 18.4603 14.1214 15.6438
2930 3 10.1434 17.3026 17.6949
1113 16 18.6104 13.573 12.8728
2870 3 15.4036 15.6844 12.1658
389 16 13.3851 19.6367 12.931
1842 14 13.4851 16.0772 15.1832
1994 14 10.1486 16.4243 13.4062
836 16 12.2449 16.0925 13.5025
523 16 19.0046 16.6244 15.0939
1243 16 16.6284 13.0326 9.93964
137 16 7.30617 2.69111 28.1545
420 16 9.08955 4.48161 25.4932
600 16 2.1922 2.07895 25.9977
672 16 8.77258 4.62877 22.2456
956 16 8.74911 1.49215 23.9314
1273 16 2.12708 6.36591 21.2361
1519 16 6.19798 8.25257 28.0586
1526 16 7.73844 8.26019 24.7653
1567 16 5.53468 5.41834 26.4697
1601 14 5.2553 6.42291 28.0516
488 16 1.36931 3.70135 23.2636
1121 16 5.66131 3.37037 23.222
172 16 4.963 7.63762 22.8692
2063 14 5.87167 3.26847 21.228
1971 14 1.90267 4.20137 21.3809
1099 16 1.56598 9.01529 23.247
1741 14 2.99566 8.14535 21.8644
1880 14 5.93358 9.24489 24.1047
778 16 3.23434 6.86444 28.6926
42 16 1.61099 5.84018 25.8627
2004 14 0.993321 3.90602 25.3798
1510 16 6.96174 1.65371 20.5342
63 16 3.5194 9.58715 20.3764
2825 3 7.48116 6.30702 21.1958
1710 14 5.70971 1.2913 28.3131
1831 14 9.11171 3.62463 27.4799
2258 3 5.68947 3.02619 25.7564
2437 3 6.51543 5.54826 23.8697
2705 3 2.37589 8.10666 25.4783
2619 3 9.03774 7.37988 27.619
2888 3 6.55578 0.15407 24.4222
2631 3 1.81437 1.99657 28.5939
1412 16 9.49823 8.25787 21.9601
1068 16 3.65429 3.25354 20.6505
1563 16 3.96465 2.61877 29.2255
897 16 9.58494 5.20262 28.7685
718 16 4.42713 9.71154 25.2716
1713 14 9.55502 3.49825 23.7983
1904 14 9.77871 8.55388 24.0219
2689 3 3.65657 1.75843 23.8711
3000 3 7.63778 9.70404 21.201
689 16 5.31606 0.669869 26.4131
2840 3 3.32537 9.27617 27.8028
506 16 1.09062 9.82586 27.1324
1522 16 0.823632 4.38359 29.3287
2325 3 8.84067 3.85014 19.981
2559 3 9.25677 0.143202 26.3601
857 16 4.59506 0.124773 22.4665
1264 16 0.280591 3.33718 20.1647
1483 16 6.36762 4.77199 19.7438
1366 16 19.3996 0.732961 22.4712
1154 16 19.1953 8.7073 24.9726
2453 3 14.0499 7.05328 21.7569
2671 3 16.4609 1.89871 22.1023
251 16 10.3943 1.95173 27.2675
349 16 11.1809 7.39645 24.9473
28 16 16.282 3.32977 24.4804
198 16 17.1371 6.48929 25.9806
464 16 14.4327 3.38777 21.4056
728 16 14.2895 6.28833 24.0719
1272 16 11.7495 3.59734 23.7404
1627 14 12.4407 3.8743 21.6477
1974 14 12.8993 6.54685 25.6662
828 16 11.9766 6.0656 21.2933
233 16 17.2922 6.51927 22.264
861 16 12.945 4.86989 26.9062
1043 16 13.5448 7.9335 27.1756
2059 14 17.2536 5.14965 24.0265
1505 16 16.0522 2.91955 28.361
710 16 13.989 1.01164 26.2524
1922 14 10.7203 7.438 20.4487
2470 3 17.824 2.94649 26.5244
1723 14 17.3235 8.64548 25.912
190 16 11.1357 2.79732 20.5535
2699 3 14.1089 1.9863 23.5957
2319 3 17.5665 5.50053 28.1605
314 16 13.0091 9.36133 22.7076
720 16 16.0225 9.47392 24.2547
2522 3 15.5739 5.67246 27.2922
2426 3 18.7507 8.72487 22.3956
1531 16 10.5151 9.38715 27.7885
494 16 17.5456 0.051691 25.6914
1091 16 17.0013 9.64846 27.6671
2596 3 12.7441 2.67549 27.489
1913 14 17.1662 6.55384 20.1297
2387 3 13.9133 3.2544 25.0919
2929 3 10.1908 0.788192 21.7124
1018 16 17.3976 4.49733 19.6836
1630 14 12.5896 9.70352 27.8431
2894 3 11.6728 0.495178 25.5134
394 16 12.1603 0.0247911 23.2275
1716 14 19.3726 0.243373 24.7044
2410 3 13.8361 0.83954 28.7464
45 16 19.3448 4.67184 23.936
2783 3 13.9029 6.22751 28.7706
504 16 18.4243 8.23716 19.7128
561 16 2.7336 19.339 21.494
50 16 6.94511 19.3399 27.1446
1270 16 3.56494 19.6413 27.6372
471 16 5.86017 16.9201 29.4949
2548 3 0.859547 17.1682 21.9787
2464 3 2.3091 14.4753 20.5317
387 16 9.47801 15.7272 29.0446
2913 3 9.58236 14.1223 20.449
1998 14 6.55422 10.2644 28.7756
837 16 1.59892 18.9832 25.0851
2407 3 4.01291 11.5655 26.9293
2672 3 2.15023 14.8254 27.483
2560 3 3.96893 17.2701 23.1128
362 16 9.49808 11.4875 20.3642
2969 3 0.908557 10.9089 24.9441
61 16 3.64141 16.5231 26.4215
181 16 6.36309 10.8041 22.7804
1415 16 7.6078 11.0324 26.9992
1166 16 7.63947 14.9038 21.4036
248 16 2.21514 12.3849 22.266
840 16 5.90176 14.0784 27.2611
863 16 6.70729 16.795 24.9964
1463 16 4.95165 14.116 23.8651
2061 14 9.11547 11.9778 25.9865
466 16 1.94148 15.6268 23.3726
1076 16 2.48595 13.1405 25.6928
2015 14 6.29402 14.6457 25.3195
1748 14 2.30958 17.9456 26.6633
1021 16 8.17989 13.6075 24.7861
1636 14 2.88975 13.8394 23.7056
30 16 5.90495 18.2408 20.9796
1862 14 6.88429 18.791 25.1628
1452 16 0.933302 16.9838 28.0633
2307 3 5.91117 13.0425 21.5533
2576 3 8.32184 16.5597 26.9756
2742 3 9.18057 15.5542 23.508
1786 14 6.35891 16.3047 20.3572
19 16 4.68664 11.1075 29.1558
2730 3 8.14562 12.3949 22.5678
2681 3 1.79989 11.4231 28.6138
1820 14 5.48291 15.013 29.136
272 16 8.39139 19.4366 23.9946
2106 14 0.374415 12.0884 21.5219
581 16 4.5323 15.1783 20.1887
1977 14 19.4111 16.6902 29.3009
206 16 13.1208 12.2951 19.9077
2198 14 13.941 16.3782 29.3314
1431 16 10.3654 16.8207 25.3567
295 16 15.9294 18.4256 19.7739
2279 3 18.2191 12.0942 25.4112
418 16 19.2198 14.4646 23.7016
1787 14 18.4155 16.3906 23.2362
902 16 18.9598 11.3388 22.4227
2148 14 14.3309 12.8705 25.57
914 16 10.2759 12.9737 27.2911
1065 16 17.1089 19.413 25.9976
2239 3 16.1236 16.2302 20.903
708 16 18.6515 18.6505 28.8457
896 16 14.0398 12.4288 23.537
211 16 18.7669 15.3012 27.6169
1159 16 16.3093 13.3529 26.0828
2592 3 13.8402 16.0701 24.2222
1023 16 12.5431 17.4815 28.1936
1164 16 11.0874 14.5872 22.2346
1215 16 13.4528 11.2877 26.6957
2079 14 11.4514 16.3428 21.1423
1289 16 16.4669 16.738 24.1168
1780 14 10.709 14.0583 29.103
1834 14 16.9549 14.2171 27.9199
2158 14 15.6801 18.6078 24.6552
603 16 13.3764 16.7482 21.7313
1965 14 14.7279 10.2783 22.7987
2487 3 11.185 13.9866 24.5063
204 16 10.1187 17.7514 21.5699
1401 16 15.8238 10.5836 21.1644
2635 3 13.8456 14.4057 22.2133
205 16 13.0099 14.6497 25.7444
1124 16 9.95663 10.686 24.2828
1098 16 17.0967 12.7974 29.4136
2421 3 11.1913 11.5924 22.0061
573 16 16.6072 13.9224 21.5658
147 16 15.5156 15.8806 28.0995
2034 14 11.8755 18.0776 26.3494
293 16 13.5739 18.2331 25.1594
1629 14 17.21 11.9512 20.9104
865 16 18.688 16.6283 20.9985
1798 14 2.07699 1.19379 35.3314
1954 14 7.12271 1.09444 32.9327
1718 14 3.41436 3.03553 31.2433
651 16 6.88241 4.86272 36.9464
1469 16 5.21583 2.36082 32.3487
530 16 1.59922 6.67846 34.9749
1017 16 1.69794 1.26373 37.5363
1384 16 8.2132 7.96396 37.6493
1368 16 5.35114 1.35963 37.1438
548 16 4.52584 8.26129 31.7523
1915 14 3.75029 6.51066 38.4071
209 16 8.69547 7.13973 31.3975
431 16 9.3158 6.1825 35.083
511 16 7.91784 2.31187 34.4273
748 16 6.01911 5.66997 33.7021
782 16 3.1926 5.01358 31.8728
1928 14 7.28597 6.83096 35.6161
2058 14 5.01619 6.269 31.9309
334 16 2.37065 3.32143 34.7583
722 16 4.68303 7.45144 36.8069
1379 16 7.17556 8.64462 34.2064
383 16 8.98082 1.59519 37.9445
1376 16 3.16107 4.43593 37.8419
1914 14 8.25618 9.16598 32.2734
773 16 1.7369 1.78521 31.6554
1277 16 8.45031 1.2897 31.2478
2069 14 0.918852 4.76251 34.7225
594 16 0.877114 7.69858 31.1434
1841 14 8.30885 3.59159 38.1245
2550 3 7.58221 3.55509 30.4074
1370 16 1.95763 7.42849 38.8019
2986 3 4.08524 5.3905 35.4619
2972 3 8.47912 4.57764 33.4404
2629 3 2.22621 7.97286 32.9759
1443 16 5.8916 5.41165 30.0641
2578 3 4.73751 9.24165 34.8357
2902 3 2.29442 8.68877 36.5698
2412 3 5.69244 3.07901 35.3978
1946 14 8.37503 9.767 38.6169
1851 14 2.07145 2.65784 39.0951
183 16 0.100171 0.637859 34.3106
1604 14 0.00489618 0.66981 32.1021
1753 14 1.19399 6.50195 29.5433
2483 3 10.2618 2.35782 33.7556
21 16 10.1689 4.83122 38.5257
84 16 12.1601 0.167847 37.5741
1745 14 10.2731 5.96579 30.712
316 16 19.5487 4.98648 33.8005
2637 3 11.4028 6.23422 36.6085
1175 16 13.7122 2.78626 38.7333
396 16 10.567 4.48821 32.1112
1438 16 19.0797 8.42755 33.5528
755 16 15.4792 1.10671 31.2536
1983 14 13.2321 1.95452 36.7721
604 16 11.9495 2.87194 35.6199
87 16 11.9364 7.20811 30.5158
143 16 17.6311 3.71832 31.2213
1260 16 14.1432 3.78018 32.9303
2018 14 13.5944 2.01841 31.9171
1010 16 15.0413 1.2273 35.7997
346 16 15.8146 6.79237 33.2408
616 16 14.8855 5.06774 36.0425
888 16 17.9596 6.74282 36.5626
977 16 18.3666 3.30632 36.4434
1592 16 12.5524 6.87815 34.445
1995 14 14.4548 5.75538 34.2042
823 16 14.9984 8.90103 36.7268
2127 14 18.5267 1.62577 37.8359
1304 16 12.4183 0.764057 32.9412
1320 16 12.3796 7.57985 38.4076
1440 16 18.0566 0.581509 33.4643
223 16 12.6594 2.44549 29.8964
1789 14 13.2713 9.27107 37.6146
2895 3 16.602 2.33401 34.4955
2801 3 17.5479 7.9567 31.5786
1847 14 11.9857 8.93509 34.1723
2246 3 15.946 3.95425 38.1333
1969 14 19.4699 4.56433 31.7038
2354 3 17.0214 8.26611 35.0835
1005 16 10.2442 9.60044 33.0812
2267 3 11.3985 4.73882 34.4073
2624 3 15.5928 5.04837 31.1274
1929 14 17.0175 2.01715 30.0006
2249 3 15.7128 6.81909 37.882
309 16 11.6423 9.81856 36.1004
2808 3 12.8412 5.17274 38.5529
2301 3 15.9844 9.08191 33.6128
2382 3 14.3291 8.48568 31.3335
2413 3 10.9458 0.688234 30.396
1763 14 19.181 5.26547 35.9183
577 16 16.0816 6.63958 29.5796
772 16 19.4241 9.68643 30.0194
2872 3 19.3272 7.28135 38.8102
441 16 16.7692 1.76621 38.9364
2910 3 10.0787 7.35628 39.1125
681 16 18.6015 0.684909 29.5787
2646 3 4.81826 10.1047 38.4266
2848 3 1.02217 15.0209 29.581
2718 3 3.65789 10.511 31.5879
2489 3 8.6715 19.2764 38.0846
2890 3 7.4274 18.6711 30.2567
2435 3 7.83572 13.426 39.1333
1007 16 2.33128 9.94833 34.2614
159 16 5.04372 19.6361 33.2436
890 16 7.62476 10.3211 30.5684
2288 3 6.19226 17.3542 33.1478
2953 3 3.62677 12.6268 30.6271
2788 3 5.73264 11.0619 34.066
2192 14 1.04664 11.3772 33.2072
291 16 1.51344 11.4955 31.1197
1428 16 6.25126 18.8924 36.8377
721 16 4.25343 16.9226 38.6821
312 16 1.22781 18.4741 33.9058
1176 16 5.44673 11.2593 36.4303
2073 14 4.27561 12.9218 37.4212
1117 16 2.45528 18.6565 30.8675
746 16 1.33851 16.1115 36.7336
646 16 1.35578 13.3102 34.0123
2062 14 1.92205 17.3177 32.2605
826 16 4.32352 12.5358 32.8495
621 16 4.15833 14.2593 35.8508
1696 14 3.31257 14.1341 33.8916
330 16 7.97667 14.9187 36.961
1011 16 6.53217 13.8155 30.5278
1020 16 8.01416 12.2698 33.5884
1105 16 3.53469 15.9263 33.0566
668 16 2.3514 12.0299 37.571
1039 16 8.76518 11.4859 37.3776
838 16 8.60153 18.7978 33.1952
1828 14 8.18093 13.5945 31.9921
1063 16 8.52068 15.5309 32.8098
2927 3 5.56079 16.427 36.8666
2864 3 4.66168 17.9573 31.3057
508 16 9.49754 17.0463 38.8575
2011 14 9.82362 17.0819 33.3931
2202 3 7.17904 12.95 35.8677
1693 14 9.80654 15.7306 37.1128
2463 3 6.736 16.3709 39.157
1699 14 2.20375 16.5077 38.6065
92 16 5.29108 13.5162 39.0857
1609 14 0.374958 11.6255 37.8351
1311 16 0.36591 15.8329 31.9263
95 16 3.29711 14.5824 29.5274
331 16 2.83588 19.5867 36.6107
2118 14 18.9903 10.6233 38.7968
1362 16 18.5183 15.6814 39.2249
2867 3 11.6598 11.3372 32.1294
819 16 11.6895 13.3047 33.8386
1410 16 19.1991 19.1428 38.8406
2725 3 11.0696 9.90804 30.785
1235 16 13.5368 9.95798 33.4182
480 16 15.4704 14.077 32.3705
1666 14 17.9829 15.9907 37.2103
65 16 14.9668 14.3722 39.0472
377 16 13.0324 10.5439 29.8231
1204 16 13.3878 10.762 39.0587
194 16 16.7958 17.1816 33.8696
563 16 16.2412 17.4826 37.1479
2273 3 16.682 18.4102 31.1868
2844 3 11.2977 11.8143 37.8058
1252 16 11.4083 17.0724 32.1927
724 16 10.3348 16.6694 35.4213
2970 3 10.7492 17.7293 29.9277
1381 16 17.0222 11.2069 34.734
1516 16 14.7131 17.333 30.9719
135 16 13.8288 15.7812 35.3265
123 16 18.0959 15.949 30.7917
2990 3 18.2089 11.7948 32.7557
1349 16 18.8266 14.1976 33.3019
1733 14 17.0786 15.289 32.6477
269 16 19.4963 16.9047 35.9729
122 16 11.3594 14.089 37.1606
2299 3 10.0952 11.6613 34.4375
166 16 14.1775 12.5059 36.1855
1610 14 15.2691 17.544 35.1474
392 16 9.94457 12.8104 30.7477
1306 16 13.8239 19.0624 34.6514
1934 14 12.6996 13.9098 35.6455
2409 3 13.4066 15.3413 32.569
1038 16 17.2037 14.3636 36.2011
2040 14 12.3683 19.1409 38.9058
8 16 17.2768 11.5958 38.0277
2739 3 14.3691 12.6877 30.4555
2240 3 15.0837 11.8294 33.1337
1942 14 16.4966 12.3124 36.3667
1544 16 16.2788 10.0016 31.2353
1508 16 12.8648 17.0841 38.4305
225 16 12.6618 14.612 29.7781
2214 3 19.2238 19.1472 31.1696
1885 14 17.4737 10.5239 29.5721
991 16 7.98919 26.204 5.80118
1060 16 4.55188 27.1058 6.64529
1432 16 5.01913 22.8657 2.14585
264 16 2.63257 25.3029 2.21869
1027 16 2.62573 22.2661 4.6647
1335 16 5.65148 23.5115 5.59372
663 16 0.697163 21.0767 7.88502
1802 14 4.59364 22.0483 4.13765
1536 16 6.04306 25.929 2.59358
1183 16 1.92977 24.9606 6.88799
1908 14 2.8235 26.5674 7.7512
540 16 6.82702 24.2646 8.6514
1810 14 7.28167 24.377 6.66134
1484 16 9.06021 22.9021 6.18054
1719 14 4.65041 24.9633 1.42748
1078 16 8.5715 22.7944 2.78293
1985 14 9.17363 24.1321 1.18066
371 16 0.830816 27.5599 4.96064
338 16 1.66878 28.4327 8.30171
2751 3 8.04571 27.8011 3.89566
2666 3 2.92035 22.2862 7.1354
2985 3 2.0239 25.0326 4.44669
2947 3 3.04343 27.6794 2.5112
1034 16 6.75474 20.2318 7.91722
2588 3 5.89245 26.7871 4.75583
2332 3 6.51454 20.9564 1.55639
2688 3 6.68498 28.0309 7.24419
859 16 9.6097 26.0879 1.97181
391 16 9.15356 29.3247 8.12654
1206 16 5.30369 20.1379 4.60181
1249 16 7.84065 29.149 1.74639
2371 3 0.56041 22.904 5.7455
82 16 1.27937 29.0318 1.33124
2352 3 0.038511 23.5284 2.30619
307 16 3.74323 22.4956 9.41685
1465 16 4.5763 29.2008 3.21465
2460 3 8.55021 21.8433 8.57705
1489 16 4.17484 20.1047 0.383426
1685 14 9.76429 21.8851 4.4727
2530 3 0.50857 26.7343 1.64033
2754 3 4.48811 29.4646 6.10811
1916 14 9.18864 27.9298 9.6269
690 16 0.0269352 21.143 2.3
100 16 9.28408 19.8653 4.44597
154 16 3.36599 25.9048 9.63
2611 3 7.52122 27.1466 0.615367
1390 16 0.475968 23.8916 9.64696
2623 3 6.05705 22.2031 9.75909
2369 3 3.58365 22.4145 0.00716993
2989 3 9.89234 26.305 4.24501
2231 3 19.1493 20.0049 7.36335
642 16 19.4646 23.884 1.9202
2769 3 12.5846 27.8055 5.85658
750 16 10.3778 28.8477 4.93728
2790 3 14.2996 23.6058 7.41815
2341 3 17.5263 24.0015 4.6249
1001 16 10.0503 26.1711 8.47956
461 16 11.7099 22.0788 3.98811
1391 16 11.6665 25.2479 5.58433
382 16 13.1358 26.4879 1.72452
473 16 16.3892 28.0562 8.15495
1083 16 14.6734 23.8631 3.73405
1471 16 14.7517 27.0158 4.86083
1747 14 13.9845 21.908 4.18685
474 16 16.5984 26.3014 1.76416
905 16 17.8088 21.7448 4.25261
2041 14 17.0775 23.8909 8.58597
1670 14 14.7351 25.8421 3.13134
1172 16 16.6056 24.9856 6.88299
290 16 14.378 21.6831 6.18789
130 16 13.3708 26.1997 8.41814
94 16 11.8186 23.1821 8.4493
2132 14 11.7431 25.1699 7.62291
2154 14 18.607 21.8136 2.33605
2047 14 16.6199 27.0441 6.41734
370 16 17.9764 27.9206 4.96137
1546 16 14.5114 20.0651 3.23079
522 16 18.0214 22.0622 8.00761
525 16 16.8136 21.8146 0.943726
2360 3 16.7044 20.9197 6.55677
2175 14 11.8103 21.1052 8.69299
2936 3 10.9288 28.3912 2.61502
547 16 11.2741 23.633 0.663877
1029 16 11.3892 20.116 6.91682
670 16 11.2179 29.4933 0.392695
2772 3 13.1268 28.7578 2.09321
1424 16 13.5729 20.4043 9.41057
1925 14 12.5458 25.0933 0.0690709
2201 3 19.3989 21.7996 5.98936
2099 14 19.6209 28.6496 3.97347
175 16 15.2705 23.4608 9.71409
442 16 14.5865 24.0529 0.00881151
412 16 0.0627046 33.9568 3.93165
1312 16 9.69928 39.1124 5.21882
2994 3 4.84267 38.79 9.46369
2607 3 8.4407 39.2185 1.86868
292 16 8.32958 39.3185 8.91898
2496 3 2.26318 37.2321 8.93969
277 16 0.28988 37.4639 4.13414
2244 3 2.70465 32.5589 0.431551
2329 3 2.29414 30.0043 3.5009
2213 3 6.96239 36.6872 8.59882
1959 14 5.69012 29.5678 1.45533
2419 3 2.32804 33.0572 4.98934
2242 3 5.33208 31.3132 5.01281
2648 3 4.42332 37.6157 1.39207
1189 16 7.31078 30.1 5.33539
2507 3 8.63146 33.8518 5.71563
1297 16 3.4843 38.7988 3.03614
1751 14 1.06278 30.2354 7.25151
2010 14 9.28722 30.1669 6.14699
1115 16 4.85963 30.4295 8.44855
853 16 2.1277 35.0506 6.21249
350 16 2.43939 30.7011 5.74136
500 16 8.01725 36.1108 6.5312
727 16 7.34571 33.5971 3.53802
1302 16 4.8821 35.9225 4.66993
1433 16 5.14339 33.4303 6.91301
1724 14 5.43967 34.4816 3.03118
2009 14 4.4523 35.3582 6.53949
662 16 3.84208 33.0923 2.99149
1324 16 4.57949 36.5749 8.10249
1495 16 5.69621 35.3655 1.07507
479 16 2.38206 35.7831 1.36024
870 16 7.92182 37.2822 3.16861
1900 14 5.53918 32.5175 8.74658
1788 14 8.03973 37.8863 5.07388
719 16 1.10939 32.1338 8.59504
1496 16 9.21152 34.6654 0.955651
188 16 6.25933 38.9147 5.73478
1229 16 5.50628 31.4704 0.686
1906 14 0.381735 35.6621 5.3261
1709 14 9.34993 33.8409 2.69427
2222 3 7.31161 36.8952 0.927036
381 16 7.46096 32.7089 9.4234
1603 14 9.55603 30.2856 1.01089
1561 16 0.823381 35.5227 9.67864
1097 16 0.307302 32.7963 0.518153
1467 16 2.52087 38.9646 6.51527
714 16 6.21529 39.0786 0.604357
2317 3 6.03989 39.015 3.03939
1948 14 0.0753118 33.6353 9.70535
715 16 0.703873 39.0209 1.16622
2185 14 1.39252 39.1112 3.06946
2330 3 7.10484 33.4779 0.16026
2823 3 10.0715 36.8611 7.99545
1688 14 14.2806 31.0745 5.6419
1659 14 16.642 36.4243 3.70154
489 16 9.96531 32.0515 6.34406
47 16 14.5755 39.0026 0.674041
1168 16 14.975 30.3797 0.654276
518 16 13.5451 30.2335 3.79815
2339 3 11.4301 31.507 4.60821
759 16 13.3015 38.6733 4.01811
1650 14 17.917 31.9031 7.19154
2551 3 11.635 39.0394 6.44118
1605 14 14.2397 37.0143 0.54693
1999 14 18.5623 38.2498 9.08394
1073 16 14.2901 32.3426 9.33186
440 16 15.4405 36.306 2.11814
516 16 14.7 35.5749 8.74254
2293 3 19.3241 34.9273 7.22786
2713 3 11.3867 34.2332 6.67707
1846 14 12.8137 30.6869 9.35312
1621 14 14.1666 36.7664 7.06116
106 16 17.3778 38.8332 4.29371
2380 3 16.4824 30.2972 3.38838
2057 14 14.918 32.3855 1.18893
429 16 10.6628 34.8236 4.00821
2566 3 13.3212 34.7092 3.46836
854 16 12.9232 33.2062 1.29882
34 16 19.0811 30.0131 2.59171
90 16 16.3085 32.8906 2.61795
266 16 15.5617 35.8686 5.45982
167 16 16.1851 31.0912 5.88934
864 16 18.9942 30.2633 7.87473
2572 3 11.3145 37.4464 3.96442
955 16 13.201 29.8543 7.11921
313 16 12.1801 36.6296 1.02514
227 16 13.2967 32.9544 5.79842
120 16 19.136 32.8058 5.77108
1046 16 10.2313 34.8593 9.3208
1342 16 18.6473 38.6453 1.08382
612 16 9.9719 31.7665 2.51991
1153 16 12.2472 36.7016 6.73948
878 16 15.1759 38.6574 7.25285
395 16 17.3178 33.3682 8.38417
1513 16 18.8002 37.3397 7.12479
403 16 18.6048 35.603 3.89872
1939 14 15.6108 34.0544 9.61637
2103 14 0.987691 27.4253 16.96
917 16 2.62437 20.911 18.163
1990 14 5.47813 25.17 16.9444
336 16 1.1622 20.5939 13.6181
1794 14 2.39496 23.0439 17.9765
1459 16 4.17892 24.0533 18.3055
1664 14 1.01872 22.6684 13.9032
660 16 6.11166 26.9739 17.7951
1242 16 4.75576 21.442 14.8857
1867 14 7.18363 25.3068 10.7679
784 16 7.20079 24.1521 16.3777