552
Lattice="23.0024128263 0.0 0.0 0.0 22.8445129109 0.0 0.0 0.0 23.1951491876" Properties=species:S:1:pos:R:3 i=12001 time=6000.5 E=-3803.9797075317 pbc="T T T"
C        0.66153317       9.47789884       6.09203224
C        0.75637565      10.87256067       6.19198022
C       21.08600048       7.15163501       2.03184257
C       19.10851044       7.16251911       2.90164834
C       20.09369104       7.14599360       3.93557167
C       19.75256195       7.09884219       5.29497251
C       17.76718942       7.29955339       3.23944295
C       18.37183645       7.28258663       5.66545396
C        2.00109873      17.07820579      12.42695028
C       16.79511251      21.13659834      11.84345840
C       16.96993866      20.81410504      10.51535520
C        2.08514595      16.75364787      11.06024619
C       20.64111197      19.89370935      14.74112009
C       19.83864117      18.16035864      13.72256705
C       18.74371222      18.95232228      14.19036596
C       19.69047043      17.00359898      12.85815816
C       17.40723862      18.52367473      13.89170559
C       17.23229961      17.38270409      13.07867121
C       10.65760758       0.44951708       6.00004607
C       12.01861743       0.28862747       6.05818123
C        7.84716877      20.62254682       2.43411428
C        8.71167980      19.90333363       4.34441711
C        8.66944223      18.81882975       3.43785514
C        9.31437466      19.74573068       5.60258931
C        9.10873968      17.52287794       3.73820979
C        9.63534728      17.37289788       5.11943834
C        4.43378424      19.90470359      11.31160309
C        4.13774901      20.22414488      12.63373780
C        2.55298509      19.64281382       7.86716974
C        3.53782796      17.74465033       7.57441695
C        4.52456736      18.82439374       7.49588988
C        3.84585901      16.38126072       7.47460676
C        5.84800588      18.40223182       7.33194523
C        6.15327394      17.04139140       7.41691832
C       12.10806254      19.69202953      18.38316836
C       12.08250906      17.66010680      22.03784871
C       10.70348858      19.79563117      18.25034263
C       10.73920176      17.92109993      21.92947240
C       15.25856319      19.67483840      21.26043545
C       15.27668389      18.52322962      19.50248469
C       15.04854559      17.63970677      20.60557489
C       15.64451788      18.07820395      18.19484441
C       14.98614370      16.24777420      20.37042860
C       15.17536000      15.75512904      19.06907242
C        6.02111144      10.05002418      21.54214662
C        6.17951606      11.37619617      21.81244703
C        2.27696794       6.95590945      20.31741235
C        4.19944656       7.39927176      19.30973418
C        3.10374859       7.50240806      18.36349535
C        5.54299720       7.72226162      18.96780598
C        3.38339280       8.14641048      17.10408648
C        4.69633489       8.46741158      16.76649130
C       10.99676344       5.33765520      22.01646164
C       12.38086220       5.24501211      22.06299011
C        8.33450547       1.31571037      20.31899425
C        8.38980082       2.07769946      18.24728073
C        8.65046740       3.15132808      19.18714089
C        8.22766156       2.32706160      16.85192681
C        8.84564556       4.45626489      18.69383963
C        8.60604338       4.73799805      17.26756245
C       16.98636082      11.30895257      23.04548043
C        0.93718486      11.79623784      17.10101641
C       17.07261720       9.92350051      22.76940304
C        0.79545716      10.42357680      16.94645766
C       20.82680407      14.22153192      21.27336758
C       18.91674780      13.71749775      20.25523941
C       19.99017844      13.51233303      19.38787575
C       17.60035656      13.30921214      19.90770627
C       19.84356178      12.75340839      18.17809653
C       18.52611510      12.43355616      17.82948171
C       21.88787288       4.93923740      10.18027400
C       21.41774658       5.08972887      11.51415628
C       20.75789834       0.76052444       7.61065429
C       19.76491737       2.62582793       8.06625236
C       18.87022339       1.52902268       8.33117136
C       19.40275514       3.92249843       8.43295464
C       17.62181852       1.76869990       8.85643484
C       17.28572656       3.08631304       9.24800723
C       19.01936613      10.69417276       0.15317636
C       11.31224459      17.77227969       0.85732144
C        0.11640926      17.65538467      11.47551579
C       22.92796964      10.96916591      18.86502504
C        4.13871687      22.11034845      11.51339723
C       22.11557437       3.01764323      11.18511964
C        4.38489485      10.72967520      22.86133317
C        0.44182953      10.34966327       4.10901850
C       11.32855472      22.81235050       3.98109574
C       11.62793128       3.45263004      22.81568807
C       11.42753685      21.64909203      19.02631294
C       18.84921899      21.62434425      11.24404327
C       21.27673291      15.20088776       3.39724490
C       20.35416747      15.42379396       2.37962386
C       21.32020033      13.52023803       2.06195619
C       21.75914200      18.77527365       6.78946951
C       20.57901331      19.55254943       6.64651404
C       21.16157029      19.65009900       8.69182086
C       16.71028463      21.16725989       2.40446332
C       16.69695919      19.94165339       1.66618455
C       14.62655011      20.50025073       2.04143917
C        2.28985998      20.99640833      16.75522316
C        1.31326493      19.99881159      16.73166517
C        1.76746176      20.51233361      14.68021210
C        6.42511219      19.99720515      21.80275381
C        6.20696931      20.41187189      20.44628459
C        8.38804945      20.14982756      20.90899422
C        2.73555211      15.95629176      21.60408433
C        1.53321790      16.06429567      20.88900644
C        2.12674303      13.96589960      21.05945429
C        2.58220935       0.11677496       6.88211816
C        1.54164969       0.98212984       6.85140455
C        2.12205199       0.81179203       8.94387689
C        1.70788717       5.88064964       1.71270560
C        2.75505054       5.92566003       0.82475632
C        2.33316434       7.94502538       1.53249915
C        6.53780867       1.16499824       1.98788485
C        6.64212277       1.68167309       0.73580149
C        8.57636570       1.87178904       1.71715981
C       16.25472961       1.98248104      20.74048471
C       16.20915859       0.97805468      19.80342973
C       14.49241711       0.80912290      21.20858719
C       20.91400613       5.93524361      21.48969240
C       21.79939593       5.95438834      20.41560337
C       21.23678112       8.02069576      20.88247168
C       20.82597948       1.69282262      16.18630520
C       20.02340617       0.56985420      16.11284040
C       20.61991107       1.15227379      14.06948444
C       22.12065275      13.86691079       7.05821597
C       22.21968921      14.87584325       8.00966028
C        0.53190660      15.42192433       6.39095134
C       16.12176955      14.15999656       1.56874974
C       15.11569986      15.17864005       1.70703632
C       16.70575078      15.96875305       0.42179537
C        8.10741760      15.69653975      23.17256573
C        7.23793129      14.62244539      22.92262758
C        6.04224928      16.41549995      23.13064229
C        1.68289776      16.74496388      16.38709414
C        1.70598143      15.93655797      17.47036385
C       22.66957299      15.92201734      16.59355462
C        1.70196003       4.97809959       7.20975233
C        1.87801392       5.98552726       6.26466051
C       22.93838886       4.96452011       5.92770358
C        8.16881516       6.30642386       0.17274846
C        7.19108678       7.30197434       0.14953960
C        6.46992194       5.59203532      22.20971046
C       16.24163991       5.26957614      20.95273495
C       17.19249150       6.30767710      20.92279074
C       16.80373846       5.63556298      22.99285031
C       21.54372827       7.37474535      15.82350233
C       21.36947967       6.45281762      14.79590575
C       22.99400483       5.81210708      16.10597157
C        1.72943013       1.94482714      14.73357682
C        2.30543277       3.43836002      13.18678489
C        3.37076949       2.58606199      13.46351945
C        2.38635188       4.49542074      12.30288122
C        4.60015852       2.73753010      12.81652783
C        4.78806343       3.90156492      12.08523548
C        2.35564542      13.85000962       2.23543037
C        4.34356002      13.28828269       2.86704170
C        3.46795176      13.16728194       3.99111527
C        5.65828516      12.80852895       2.89528125
C        3.85352536      12.34562084       5.10545688
C        5.16444272      11.79746925       5.12709317
C       15.14893144       1.78148888       2.12706262
C       14.25130069       2.96176959       3.76460913
C       14.26648900       3.79309063       2.60195515
C       13.63461010       3.35919430       4.91703053
C       13.67281666       5.05307129       2.59936541
C       13.03725566       5.49405248       3.80364161
C       16.41253613      22.19293489       6.28428118
C       16.28061479      20.07188652       6.82493831
C       15.22247287      20.43155767       5.92175954
C       16.35829818      18.67749710       7.09674821
C       14.27597964      19.58647510       5.32426853
C       14.37945498      18.21820519       5.64423133
C        6.31224856      22.09048789      16.32321682
C        7.11141957      22.02258019      14.32607357
C        8.16910076      21.72354570      15.24562531
C        7.36903368      21.88277215      12.93151203
C        9.41402140      21.36464363      14.81608231
C        9.61255847      21.29133561      13.44085570
C        6.65777377      22.06972163       6.60794271
C        7.25310688       1.30168694       7.00081140
C        6.51658140       0.76674922       8.10886637
C        7.76522014       2.59545720       7.05900946
C        6.23501222       1.59239701       9.29616713
C        6.80610669       2.83250425       9.37625768
C       16.66142555      21.71584717      16.67809201
C       15.58825472      22.80814617      15.09817783
C       14.75481956      22.71938099      16.26148591
C       15.08305800       0.49532493      13.87455574
C       13.41317544       0.39352818      16.29142881
C       12.94356773       0.82085583      15.04980672
C       15.92902720       7.71056046       4.92007874
C       17.39405408       7.41762662       4.64693103
C       18.06475398      15.49702536      11.64863278
C       18.39305586      16.67591675      12.53523878
C       10.37549933      18.28283289       7.39949170
C        9.79478944      18.46828406       6.01029556
C        5.65138186      14.53403315       7.28527896
C        5.21915921      16.00409724       7.40859826
C       15.85466665      16.16151749      16.58393333
C       15.58115442      16.65948116      18.00994849
C        7.15364174       8.70102187      17.23425887
C        5.77788268       8.28712737      17.68660669
C        3.93381210       5.97275990      10.99737108
C        3.69579182       4.74170318      11.81361105
C        7.46847749      11.53410846       4.10609621
C        6.06429327      12.11323054       4.07360339
C       12.12279362       5.09582643       6.03149968
C       12.98989434       4.65026822       4.94078016
C        8.06887080       3.95134720      14.84753801
C        8.28758732       3.64528768      16.40851238
C       16.04647004      12.16308279      18.36247312
C       17.39064496      12.66918213      18.67243528
C       17.96298985       5.56990703       9.68415507
C       18.20234282       4.20002977       9.15397018
C       15.35723647      16.32284811       7.01011747
C       15.42584912      17.76607329       6.54643733
C        8.84733720      21.39796658      10.95359228
C        8.62825932      21.49242644      12.48711583
C        8.44641963       4.62931762       8.37025419
C        7.58575754       3.34096282       8.28409700
C       12.99390327       1.40320144      12.59592409
C       13.72451046       0.80350303      13.86516769
H        0.77028317       8.75606501       6.89799128
H        0.82682108      11.52519702       7.07138487
H       21.87515259       7.02412154       1.33939503
H       16.97314309       7.34293950       2.50133684
H       20.54628608       6.90680336       6.00882087
H       18.05308855       7.24361432       6.72729988
H        2.81877957      17.03525024      13.15311293
H       15.91038464      21.13077242      12.47701048
H       16.14658195      20.51791636       9.90434400
H        2.95461040      16.36976327      10.46337823
H       21.34333848      20.62681950      15.15060275
H       20.52216474      16.44684196      12.43274749
H       16.42488700      19.00509384      14.09135525
H       16.16236582      16.95528967      12.94450839
H        9.90765818       0.67835979       6.81594022
H       12.60499795       0.16129575       6.96398029
H        7.38508052      21.29100920       1.67530530
H        9.44899402      20.68328320       6.24468708
H        8.96187581      16.71387807       2.99662111
H        9.87361028      16.40713775       5.47349188
H        4.63393198      18.92826939      10.76056521
H        4.01058649      19.59332765      13.50301316
H        1.89957282      20.44311344       8.21131873
H        3.07840353      15.61455953       7.46902223
H        6.73663821      19.09887791       7.23031679
H        7.17633659      16.82694909       7.42570428
H       12.78484179      18.80230456      18.26570596
H       12.85637691      17.68093807      21.19452881
H       10.04349005      19.01971873      17.87313152
H       10.10987730      17.96355082      21.02216672
H       15.30188326      20.51910918      21.91815242
H       16.15785680      18.71980422      17.44918835
H       15.00183159      15.54600544      21.19218528
H       15.00116781      14.72350316      18.78345399
H        6.60267248       9.31493091      20.94912982
H        6.98402990      12.12235096      21.62318502
H        1.61583881       6.70203038      21.13392937
H        6.27734653       7.63601527      19.75431122
H        2.55227510       8.27474412      16.39104157
H        4.91631456       8.98043265      15.77841787
H       10.47136249       6.24865318      21.73719193
H       13.13560558       6.02684298      21.69129004
H        8.11732836       0.54853190      21.08250371
H        8.01798998       1.48217235      16.18325416
H        9.20326054       5.21927332      19.35825978
H        8.65752313       5.67468886      16.74823681
H       16.10383176      11.96425659      23.13568566
H        1.27428288      12.52104973      16.36851593
H       16.33619515       9.17495036      22.45039846
H        1.21892379       9.78176771      16.15583819
H       21.51965990      14.64241123      21.99067615
H       16.78263259      13.58931908      20.56798231
H       20.61363145      12.57535883      17.43817843
H       18.37125424      11.79878698      16.90000301
H       21.97651550       5.64535900       9.35856720
H       21.05343893       6.06658695      11.96305232
H       21.52957576       0.08985364       7.30261901
H       20.14209435       4.71923504       8.21759624
H       16.92208550       0.93195979       9.03463379
H       16.26378093       3.25890134       9.51782094
H       20.04229778      10.58714127       0.50381000
H       11.32206438      17.73074669       1.92168279
H       22.14709364      18.00794930      11.31260250
H       22.40162797      10.95339857      19.87318634
H        3.95748062       0.33255820      11.18575486
H       22.51359884       1.97911573      11.31825154
H        3.52100084      10.82037007       0.36683823
H        0.34308913      10.43265345       3.00020047
H       11.34177837      22.45573783       2.92002000
H       11.60020721       2.44767151       0.14786873
H       11.42930517      22.71307748      19.19167756
H       19.91623502      22.03310336      11.31892255
H       21.59051165      15.93884857       4.20157345
H       19.88585435      16.40847664       2.15825315
H       21.53287189      12.55495259       1.51367500
H       22.16453860      17.99650699       6.22478366
H       19.89579313      19.74085792       5.78972773
H       21.18983305      19.93616910       9.79194608
H       17.53493949      21.78303386       2.78832436
H       17.55791289      19.53123963       1.14345896
H       13.55327516      20.45960141       2.06446354
H        2.71589218      21.51910632      17.61491004
H        0.74640692      19.46058238      17.49434081
H        1.62831465      20.62726490      13.59230541
H        5.69793310      19.65330914      22.62119586
H        5.27966697      20.75775514      19.93680942
H        9.45033873      20.24492972      20.75462893
H        3.25660843      16.81174803      22.07683845
H        0.99917237      16.95721306      20.57718086
H        2.08997005      12.85461441      21.11724603
H        3.07192620      22.32945387       6.11332483
H        0.96028741       1.34633291       5.97822896
H        2.31801968       1.04061981       9.97566188
H        1.16806496       5.04808086       2.18865712
H        3.25138815       5.10766570       0.30848794
H        2.46713866       9.04653502       1.81128660
H        5.65791750       0.72002113       2.43087567
H        5.95377067       1.77643738      23.08261448
H        9.61319835       2.21904818       2.05396570
H       16.85652502       0.67029689      18.94202635
H       17.16768287       2.65227654      20.81250091
H       13.59571658       0.30176201      21.55444793
H       20.42245648       5.13224750      21.98498474
H       22.20124866       5.09309266      19.93490558
H       21.16833176       9.09051588      20.98605587
H       21.11773615       2.28366215      17.03074382
H       19.46523330      22.83649707      16.87215709
H       20.43446110       1.30433642      12.99949072
H       21.35097935      13.07548222       6.96275453
H       21.65996798      14.94377060       8.96946061
H        1.29639371      15.99032569       5.81206138
H       14.13389079      15.12860317       2.22483685
H       16.31917400      13.26055215       2.07759886
H       17.26718927      16.64831890      23.01187178
H        9.19650058      15.83660391       0.08553846
H        7.47913816      13.58480840      22.76498882
H        5.24335329      17.11699680       0.28933695
H        2.52908466      17.32796578      16.04874604
H        2.54808214      15.58025465      18.12194341
H       21.57522920      15.80661728      16.39314819
H        2.82320661       6.55620017       6.12672451
H        2.31570554       4.80324395       8.09159152
H       21.99254657       4.57783888       5.57236414
H        9.16182986       6.36428993       0.62474061
H        7.14608444       8.30271555       0.49244479
H        5.81334625       4.89004259      21.67842569
H       17.42827456       6.96453464      20.04816884
H       15.58085747       4.83451324      20.22033710
H       17.04472912       5.49533612       0.88525445
H       20.68661468       6.64255583      13.99798829
H       20.93540450       8.28495508      16.01717919
H        0.76764980       5.16380680      16.47461144
H        1.09612183       1.31510416      15.40129586
H        1.41594432       5.10932886      12.12623255
H        5.43475738       2.05092714      13.01920409
H        5.80976643       4.20332621      11.64159117
H        1.55335152      14.11032629       1.49143733
H        6.38284476      12.82431554       2.07616741
H        2.96327096      12.08452301       5.75924941
H        5.41472135      11.38834713       6.13377458
H       15.70936368       1.01698925       1.58747868
H       13.54407925       2.74069271       5.77974475
H       13.68408178       5.69621291       1.74197589
H       12.42355687       6.41941089       3.93288154
H       16.70976525       0.39914792       6.39497840
H       17.19451696      18.34657284       7.71198607
H       13.55174791      19.90882928       4.55379570
H       13.65236709      17.49784985       5.22914002
H        5.62183829      22.17877227      17.11227461
H        6.54469725      22.15282298      12.22226123
H       10.16890108      21.10760257      15.54049784
H       10.63036331      20.99557959      13.02440443
H        6.63591554      21.08595935       6.10301649
H        8.31449099       2.94896751       6.18865827
H        5.56534724       1.14910994      10.05491500
H        6.62267757       3.59409228      10.17893959
H       17.39655736      21.05565522      17.16126398
H       15.81489610       0.68994387      13.03448089
H       12.78099669       0.41530674      17.19584503
H       12.00113682       1.36441860      14.89938239
H       15.85248587       8.48648001       5.71411762
H       15.45587880       8.24594386       4.15729523
H       15.40217598       6.76150489       5.25683537
H       17.62215920      15.87471287      10.53876847
H       18.91109029      14.92394570      11.41782909
H       17.25606569      14.86548958      12.14227491
H       11.49112993      18.26789282       7.56603131
H        9.99912815      18.99902261       8.10284680
H       10.04903295      17.27378624       7.79191154
H        4.89121085      13.77215935       7.55461143
H        5.73317282      14.30775253       6.19120496
H        6.60178954      14.34036990       7.88524220
H       15.57590809      16.85987381      15.82271020
H       16.88998510      15.92892108      16.53041954
H       15.34636430      15.22710173      16.33507362
H        7.40187846       8.12196258      16.26254063
H        7.17295023       9.81828622      16.96756736
H        7.93519402       8.48732284      18.00167144
H        2.95187564       6.55536340      10.92662101
H        4.74384085       6.55287194      11.47423832
H        4.30477238       5.64623788      10.00404622
H        8.00031662      11.30881233       3.13394662
H        8.11140540      12.15643181       4.70506216
H        7.42276769      10.60117670       4.67700949
H       12.32230290       4.49942609       6.91066471
H       12.37048067       6.10300858       6.39328340
H       11.05071581       5.07916506       5.81027121
H        8.64514940       3.20686355      14.19897026
H        6.98112101       4.04138321      14.65800229
H        8.53673191       4.96347365      14.58566607
H       16.00630927      11.12670979      18.00474033
H       15.35548961      12.21701588      19.27607557
H       15.60794226      12.85194605      17.57314710
H       18.49615300       5.70185039      10.62806595
H       18.35779524       6.32997579       9.01724949
H       16.91807488       5.80538563       9.82658802
H       16.30086784      15.98509828       7.43347039
H       14.50671169      16.21977110       7.77517407
H       15.05549680      15.72457976       6.14695618
H        9.64371204      22.06047645      10.55106609
H        9.27778622      20.33800010      10.85000092
H        7.97021972      21.48739146      10.29829000
H        9.48707154       4.40229101       8.44104891
H        8.22241142       5.35807423       7.57752216
H        8.25893514       5.21107517       9.26444318
H       13.71138085       1.56402020      11.77033305
H       12.22068831       0.73286170      12.21690945
H       12.55570463       2.37179543      12.76451927
N        0.45683389       9.16884106       4.75263395
N        0.52252567      11.40341025       4.93777906
N       19.75239811       7.15723966       1.65762279
N       21.38188019       7.10354738       3.36261385
N        0.74749441      17.54191173      12.62908743
N       18.04986217      21.62592866      12.36006878
N        0.86448866      17.22091008      10.42674493
N       18.25872613      21.10141259      10.14690067
N       21.06731191      18.70005257      14.17894764
N       19.28417418      20.08998129      14.77658008
N       10.23688582       0.39705535       4.68001936
N       12.44097053      22.73907859       4.75031116
N        8.16165546      21.04021648       3.70157490
N        8.08854823      19.28963893       2.20900865
N        4.50896995      21.09006370      10.61438829
N        3.88691529      21.58436306      12.73442406
N        2.30814998      18.33039252       7.82675363
N        3.83262397      19.99778433       7.68969340
N       12.59801999      20.91794588      18.89052272
N       12.46849302      17.64067332       0.16760843
N       10.29189592      21.08424770      18.61587961
N       10.18251689      17.97265271       0.07754332
N       15.42966109      19.82111599      19.94143318
N       14.99464227      18.43607378      21.72932610
N        4.87694932       9.62297923      22.24880497
N        5.13735958      11.89024095      22.64663575
N        3.61134525       7.08187186      20.56205660
N        1.93496192       7.21530542      19.02064162
N       10.51026115       4.16718974      22.48086245
N       12.77512037       4.06059546      22.57184004
N        8.25540150       0.90167846      19.01516024
N        8.64103382       2.62936572      20.47689399
N       18.25835603      11.78776632       0.13377048
N        0.33164106      12.13657294      18.27340231
N       18.38455536       9.54795775      22.94496147
N        0.21989607       9.87992360      18.12784235
N       19.47683170      14.24911838      21.45384464
N       21.22255366      13.82222104      20.03897690
N       22.34663624       3.70393250      10.00975348
N       21.63419052       3.89543723      12.15313037
N       20.93884549       2.14288737       7.47888977
N       19.49068056       0.38465680       8.02845973
N       21.93501069      14.02741518       3.15870174
N       20.38583021      14.36434140       1.48368993
N       22.08022241      18.82613604       8.12144812
N       20.25475992      20.11000665       7.82104392
N       15.35046038      21.43630278       2.69465314
N       15.35984380      19.58399272       1.40564885
N        2.58628654      21.33010256      15.42724265
N        0.96432454      19.67832005      15.41553391
N        7.74802781      19.75476386      22.04766639
N        7.51017426      20.61892607      19.94663746
N        3.11251434      14.63165201      21.69407340
N        1.17891364      14.75484463      20.54649600
N        2.95202728      22.83064225       8.23645846
N        1.21096346       1.44404336       8.11829225
N        1.46287023       7.15546946       2.23484507
N        3.13846825       7.29232469       0.70014628
N        7.72963059       1.30100000       2.67270669
N        7.93441486       2.12825908       0.54162428
N       15.03163338       0.26359230      20.08880292
N       15.23417684       1.88040934      21.66484263
N       20.52659875       7.26545080      21.71639915
N       21.92935145       7.26106149      19.95282834
N       21.24471431       2.05374354      14.88033287
N       19.85257747       0.25642108      14.78332771
N       22.86850867      14.27221115       5.99028996
N        0.10519035      15.80325221       7.61600474
N       17.07820410      14.68799863       0.70648756
N       15.51131893      16.28759082       0.99633209
N        7.28938413      16.83735835       0.04867934
N        5.95423547      15.03759850      22.96702604
N        0.38944892      16.72971305      15.78745829
N        0.37555904      15.43923640      17.65181069
N        0.48451899       4.33002482       6.99117498
N        0.73622731       5.97308130       5.45253033
N        7.74776431       5.24756429      22.62619800
N        6.11649487       6.83321975      22.60092868
N       15.98581613       4.85637623      22.26116140
N       17.56292928       6.49886708      22.26948091
N       22.56592528       6.95144858      16.65674842
N       22.28068174       5.46573334      15.00829816
N        1.24654002       3.00527906      14.07849874
N        3.00803664       1.55902031      14.41108541
N        3.62864226      13.70782120       1.76888295
N        2.21551331      13.57478331       3.50206381
N       14.81172373       1.67321041       3.45927991
N       14.92247408       2.99062510       1.61947252
N       17.03199435      21.23730080       7.05350418
N       15.41729304      21.73850276       5.54609865
N        5.89225916      22.30555869      15.03298252
N        7.58610077      21.79911686      16.54476759
N        7.31155071       0.29379977       6.02649744
N        6.18506424      22.31929344       7.83962124
N       16.82052412      22.20376912      15.44082667
N       15.46653779      22.09547781      17.28640987
Zn      19.00188707       7.59024317      23.02875006
Zn       0.41138209       7.34110354       4.12959817
Zn      22.94846764      18.01918334      14.49289881
Zn      18.37313900      21.88266552      14.29834080
Zn       8.24519618       0.20153226       4.28968165
Zn       8.31421593      18.55411092       0.33304411
Zn       0.49786324      17.49333390       8.59929481
Zn       4.61071686      21.72206277       8.62963020
Zn      14.63152778      21.45633947      18.93747218
Zn      14.60770478      17.95113711       0.46965841
Zn       4.41052844       7.81266555      22.45144006
Zn       0.16911890       7.91764577      18.44293296
Zn      22.37308517       3.61694318      14.24777996
Zn       3.87488205      22.54529001      14.50752246
Zn       4.30483406      13.86502004      23.03975304
Zn       0.21922753      13.21226398       4.45385408
Zn      14.33837170      22.62064226       4.14198920
Zn      14.72552934       3.47476531      22.82574844
Zn       8.30706682      21.74294160      18.40944336
Zn       8.62592022       3.53784214      22.22619167
Zn      18.85063203      13.77028399       0.28262852
Zn      22.97750569      14.02747901      18.91175127
Zn      22.77597559       2.93242826       8.23749705
Zn      18.73336319      21.32330973       8.15679908
552